# vtk DataFile Version 4.2
vtk output
ASCII
DATASET POLYDATA
POINTS 34648 float
-5 -12.238 -20 -1 -12.4936 -20 -1 -13 -19.0515 
3 -12.408 -20 -10 -11.1984 -20 -9 -11.5429 -20 
-9 -12 -19.3411 -5.58134 -12 -20 -6 -11.7719 -20 
-6 -12 -19.6784 -4.62341 -12 -20 -4 -11.4794 -20 
-4 -12 -19.2734 -3 -11.0263 -20 -1.93509 -12 -20 
-2 -11.9546 -20 -2 -12 -19.937 -0.137985 -12 -20 
0 -11.8955 -20 0 -12 -19.8553 1 -11.1128 -20 
2.32831 -12 -20 2 -11.7365 -20 2 -12 -19.6343 
3.86187 -12 -20 4 -11.9132 -20 4 -12 -19.8789 
6 -11.1275 -20 7 -11.9817 -20 7 -12 -19.9741 
8 -11.5326 -20 8 -12 -19.3318 11 -11.0047 -20 
-13 -11 -19.0749 -10.149 -11 -20 -8.36821 -11 -20 
-8 -11 -19.5589 -6.65969 -11 -20 -7 -11 -19.4434 
4.86297 -11 -20 5.53384 -11 -20 5 -10.4958 -20 
5 -11 -19.8 8.42206 -11 -20 10.9945 -11 -20 
11.0203 -11 -20 12 -10.1367 -20 12 -11 -19.67 
-14 -10 -19.2869 -13 -10 -19.4634 -10.3513 -10 -20 
-10 -9.00126 -20 -8.04125 -10 -20 -8 -10 -19.9518 
-6.9008 -10 -20 -7 -10 -19.8401 -3 -9.25735 -20 
1 -9.04289 -20 5 -9.67224 -20 6 -9.06343 -20 
8.64087 -10 -20 9 -10 -19.3641 10.6786 -10 -20 
10 -10 -19.2013 11 -9.43403 -20 12.0259 -10 -20 
12 -9.92691 -20 -9.99835 -9 -20 -10 -9 -19.9992 
-8.57981 -9 -20 -9 -8.56879 -20 -8 -9 -19.337 
-6.5231 -9 -20 -7 -9 -19.2411 -6 -8.23159 -20 
-3.24676 -9 -20 -4 -8.57287 -20 -2.88172 -9 -20 
-3 -9 -19.8546 0.976727 -9 -20 0 -8.02123 -20 
1.02937 -9 -20 1 -9 -19.9761 2 -8.23052 -20 
4.72517 -9 -20 4 -8.02434 -20 5 -9 -19.6105 
6.03327 -9 -20 6 -9 -19.9626 8.28126 -9 -20 
8 -8.56243 -20 11 -9 -19.7094 12 -9 -19.3588 
-9 -8 -19.3662 -5.66759 -8 -20 -6 -8 -19.7556 
-4.55015 -8 -20 -5 -7.38912 -20 -4 -8 -19.4102 
-2.0401 -8 -20 -2 -7.93747 -20 -0.0219445 -8 -20 
0 -8 -19.9786 2.22699 -8 -20 2 -8 -19.7662 
3.9698 -8 -20 4 -8 -19.9749 6.99072 -8 -20 
7.01679 -8 -20 7 -7.98739 -20 8 -8 -19.3859 
-5 -7 -19.6944 -1.20304 -7 -20 -2 -7 -19.2838 
-0.811179 -7 -20 0 -7 -19.2189 2.98018 -7 -20 
2 -7 -19.0053 3.02475 -7 -20 4 -7 -19.1991 
7 -7 -19.2001 -5 -5.69169 -20 -5 -6 -19.7153 
-1.22978 -6 -20 -2 -5.24856 -20 -2 -6 -19.3152 
-0.786036 -6 -20 0 -5.17735 -20 0 -6 -19.2521 
2.95855 -6 -20 2 -6 -19.0399 3.05157 -6 -20 
4 -5.15942 -20 4 -6 -19.2282 7 -5.16785 -20 
7 -6 -19.2201 -10 -4.34013 -20 -10 -5 -19.0063 
-9 -4.67007 -20 -9 -5 -19.5101 -5.88734 -5 -20 
-6 -4.94353 -20 -6 -5 -19.9189 -4.38968 -5 -20 
-4 -4.71682 -20 -4 -5 -19.5994 -2.1917 -5 -20 
-3 -4.32485 -20 -3 -5 -19.05 0.163259 -5 -20 
1 -4.41447 -20 1 -5 -19.181 2.04873 -5 -20 
2 -4.96557 -20 2 -5 -19.9517 4.10746 -5 -20 
5 -4.1478 -20 6.85391 -5 -20 6 -4.37311 -20 
6 -5 -19.0998 7.25615 -5 -20 8 -4.68733 -20 
8 -5 -19.5415 11 -4.14147 -20 -14 -3.32901 -20 
-14 -4 -19.0496 -13 -3.47139 -20 -13 -4 -19.2661 
-10.2852 -4 -20 -11 -3.03139 -20 -8.08012 -4 -20 
-8 -3.93397 -20 -8 -4 -19.9153 -6.89376 -4 -20 
-7 -3.87257 -20 -7 -4 -19.8384 8.60524 -4 -20 
9 -3.49067 -20 9 -4 -19.338 10.801 -4 -20 
10 -3.35659 -20 10 -4 -19.1516 11.6122 -4 -20 
12 -3.89821 -20 12 -4 -19.8613 -14.2352 -3 -20 
-12.3863 -3 -20 -11.0961 -3 -20 -12 -2.2165 -20 
-12 -3 -19.5991 12.6458 -3 -20 13 -3 -19.3181 
15 -2.22089 -20 15 -3 -19.5801 16 -2.17242 -20 
16 -3 -19.5451 -18 -2 -19.0291 -14.503 -2 -20 
-12 -1.80231 -20 -11 -1.0036 -20 12.916 -2 -20 
13 -2 -19.8387 14.8847 -2 -20 14 -2 -19.1124 
15 -1.80334 -20 16.0467 -2 -20 16 -1.84787 -20 
-14.2042 -1 -20 -14 -0.704373 -20 -12.435 -1 -20 
-13 -0.552422 -20 -12 -1 -19.5535 -10.9989 -1 -20 
-11 -1 -19.998 -8 -0.0455903 -20 -7 -0.105908 -20 
9 -0.514704 -20 10 -0.658799 -20 12.6185 -1 -20 
12 -0.10426 -20 13 -1 -19.269 15 -1 -19.5169 
16 -1 -19.4752 -14 0 -19.0464 -13 0 -19.2694 
-10.2935 0 -20 -10 0.404739 -20 -8.053 0 -20 
-9 0.791572 -20 -8 0 -19.9451 -6.91634 0 -20 
-7 0 -19.8741 -4 0.870784 -20 -3 0.417333 -20 
1 0.524581 -20 5 0.206086 -20 6 0.464011 -20 
8.62054 0 -20 8 0.81783 -20 9 0 -19.3703 
10.7904 0 -20 10 0 -19.1801 11.6261 0 -20 
11 0.169967 -20 12 0 -19.8651 -10 1 -19.2376 
-9 1 -19.7374 -6.10243 1 -20 -6 1.2512 -20 
-4.15361 1 -20 -4 1 -19.8462 -2.40215 1 -20 
-3 1 -19.3108 -2 1.78007 -20 0.417295 1 -20 
0 1.67741 -20 1.74188 1 -20 1 1 -19.4416 
2 1.32926 -20 4.28688 1 -20 4 1.63633 -20 
5 1 -19.0475 6.63346 1 -20 6 1 -19.3507 
7.63008 1 -20 7 1.62006 -20 8 1 -19.7738 
-9 2 -19.1065 -5.35975 2 -20 -6 2 -19.5444 
-4.74972 2 -20 -4 2 -19.2469 -1.84934 2 -20 
-2 2.45966 -20 -2 2 -19.8695 -0.206546 2 -20 
0 2.67561 -20 0 2 -19.8092 2.41039 2 -20 
2 2 -19.6021 3.72628 2 -20 4 2.75546 -20 
4 2 -19.7822 7 2.77657 -20 7 2 -19.7665 
8 2 -19.1513 -9 3.5573 -20 -9 3 -19.4169 
-5.77507 3 -20 -6 3.16074 -20 -6 3 -19.8395 
-4.46225 3 -20 -4 3.47763 -20 -4 3 -19.5331 
-2.13339 3 -20 0.0954342 3 -20 1 3.90738 -20 
1 3 -19.127 2.11758 3 -20 2 3.11872 -20 
2 3 -19.8854 4.05314 3 -20 6.93552 3 -20 
6 3.96949 -20 6 3 -19.032 7.11157 3 -20 
8 3.52977 -20 8 3 -19.4554 -9.95623 4 -20 
-10 4.01835 -20 -10 4 -19.9783 -8.56577 4 -20 
-8 4.5255 -20 -8 4 -19.4018 -6.56071 4 -20 
-7 4.59654 -20 -7 4 -19.3317 -3.06489 4 -20 
-2.96963 4 -20 -3 4.03303 -20 -3 4 -19.9646 
4.78742 4 -20 5.9044 4 -20 5 4.26298 -20 
5 4 -19.7129 8.29444 4 -20 11 4.26905 -20 
11 4 -19.675 12 4.55738 -20 12 4 -19.3108 
-14 5.34569 -20 -14 5 -19.775 -13 5.04528 -20 
-13 5 -19.9715 -10.6525 5 -20 -11 5 -19.3657 
8.98544 5 -20 9 5.04352 -20 9 5 -19.9754 
10.1846 5 -20 10 5.34215 -20 10 5 -19.8021 
12.29 5 -20 -14.215 6 -20 -14 6.9332 -20 
-12.4476 6 -20 -12 6 -19.5182 -10.9778 6 -20 
-11 6 -19.9593 10 6.85389 -20 12.6132 6 -20 
13 6 -19.2439 15 6 -19.5422 16 6 -19.5234 
-13.8327 7 -20 -14 7 -19.9689 -12.8646 7 -20 
-13 7.10541 -20 -12 7 -19.0532 -10.7309 7 -20 
-11 7 -19.5016 -10 7.96648 -20 -8 7.49723 -20 
-7 7.42685 -20 -3 7.88335 -20 1 7.97644 -20 
5 7.69896 -20 6 7.957 -20 9.60066 7 -20 
9 7.07235 -20 10.0602 7 -20 10 7 -19.9335 
11 7.75859 -20 12.377 7 -20 12 7.5141 -20 
15 7 -19.0683 16 7 -19.0458 -9.90587 8 -20 
-10 8 -19.9533 -8.61122 8 -20 -9 8.26091 -20 
-8 8 -19.315 -6.50818 8 -20 -7 8 -19.2264 
-6 8.48017 -20 -5 8.92465 -20 -3.26577 8 -20 
-4 8.26272 -20 -2.87338 8 -20 -3 8 -19.8465 
-2 8.65415 -20 0.969534 8 -20 0 8.61021 -20 
1.03852 8 -20 1 8 -19.9692 2 8.47903 -20 
4.71406 8 -20 4 8.61041 -20 5 8 -19.5998 
6.05221 8 -20 6 8 -19.9424 7 8.63674 -20 
8.26169 8 -20 8 8.26618 -20 11 8 -19.6592 
12 8 -19.3042 -6 9 -19.1317 -5 9 -19.875 
-1.38653 9 -20 -2 9 -19.4342 -0.641635 9 -20 
-1 9.29123 -20 0 9 -19.3639 2.81362 9 -20 
2 9 -19.1476 3.23499 9 -20 3 9.15993 -20 
4 9 -19.3576 7 9 -19.3881 -1 10 -19.12 
-1 12.6932 -20 -1 12 -19.3179 3 12.8507 -20 
3 12 -19.1534 -6 13 -19.0562 -5 13.2424 -20 
-5 13 -19.8363 -1.31255 13 -20 -2 13 -19.3197 
-0.712489 13 -20 0 13 -19.2362 2.86754 13 -20 
2 13 -19.0105 3.17109 13 -20 4 13 -19.2605 
7 13.913 -20 7 13 -19.3584 -9 14 -19.4399 
-5.66865 14 -20 -6 14 -19.7382 -4.57705 14 -20 
-4 14 -19.2912 -1.97112 14 -20 -2 14 -19.9708 
-0.108699 14 -20 0 14 -19.8807 2.2954 14 -20 
2 14 -19.6544 3.91641 14 -20 4 14 -19.924 
6.95142 14 -20 7.0968 14 -20 7 14.2176 -20 
8 14 -19.4097 -9 15 -19.1442 -5.29343 15 -20 
-6 15 -19.433 -4.81673 15 -20 -5 15.1655 -20 
-1.67083 15 -20 -2 15 -19.6597 -0.385746 15 -20 
-1 15.4951 -20 0 15 -19.566 2.55292 15 -20 
2 15 -19.3356 3.58568 15 -20 3 15.385 -20 
4 15 -19.6161 7 15 -19.7698 8 15 -19.1068 
-1 16 -19.2763 3 16 -19.1158 -1 -18 -18.2995 
-1 -13.0326 -19 -9 -12.1759 -19 -6 -12.3587 -19 
-5 -12.7674 -19 -5 -13 -18.0877 -4 -12.1462 -19 
-1.052 -13 -19 -2 -12.5044 -19 -0.952001 -13 -19 
0 -12.4615 -19 2 -12.3415 -19 3 -12.9401 -19 
3 -13 -18.7705 4 -12.4699 -19 7 -12.5113 -19 
8 -12.1727 -19 -13 -11.05 -19 -9.67532 -12 -19 
-10 -11.887 -19 -10 -12 -18.644 -8.72338 -12 -19 
-8 -11.3932 -19 -6.41014 -12 -19 -7 -11.3143 -19 
-3.56597 -12 -19 -2.72647 -12 -19 -3 -11.7489 -19 
-3 -12 -18.3011 0.788899 -12 -19 1.2658 -12 -19 
1 -11.837 -19 1 -12 -18.5511 4.59372 -12 -19 
5 -11.5738 -19 6.19273 -12 -19 6 -11.8391 -19 
6 -12 -18.5359 8.18334 -12 -19 11 -11.6887 -19 
12 -11.4532 -19 -13.4307 -11 -19 -14 -10.7426 -19 
-14 -11 -18.7679 -12.9379 -11 -19 -10.669 -11 -19 
8.97939 -11 -19 9 -10.9086 -19 9 -11 -18.9233 
10.1686 -11 -19 10 -10.5053 -19 10 -11 -18.5804 
12.3301 -11 -19 -14.1372 -10 -19 -14 -9.61167 -19 
-12.6051 -10 -19 -13 -9.34893 -19 -10.876 -10 -19 
-11 -10 -18.4997 9 -9.41797 -19 10 -9.68735 -19 
12.5241 -10 -19 -14 -9 -18.019 -13 -9 -18.4747 
-10.5336 -9 -19 -10 -8.12473 -19 -8 -8.69176 -19 
-7 -8.7754 -19 -3 -8.16293 -19 1 -8.0342 -19 
5 -8.41401 -19 6 -8.08863 -19 8.85416 -9 -19 
9 -9 -18.4888 10.3846 -9 -19 10 -9 -18.1205 
11 -8.39376 -19 12.1808 -9 -19 12 -8.70144 -19 
-9.7262 -8 -19 -10 -8 -18.7206 -8.67375 -8 -19 
-9 -7.56482 -19 -6.48238 -8 -19 -6 -7.04835 -19 
-3.28674 -8 -19 -4 -7.46952 -19 -2.86534 -8 -19 
-3 -8 -18.6965 0.966405 -8 -19 1.04266 -8 -19 
1 -8 -18.9373 4.69812 -8 -19 5 -8 -18.2033 
6.08452 -8 -19 6 -8 -18.8256 8.22443 -8 -19 
8 -7.53135 -19 11 -8 -18.0796 -9 -7 -18.0917 
-5.94874 -7 -19 -6 -7 -18.9292 -4.34211 -7 -19 
-4 -7 -18.3403 -2.23704 -7 -19 0.219042 -7 -19 
1.99328 -7 -19 4.14415 -7 -19 6.81552 -7 -19 
7.31949 -7 -19 8 -7 -18.1751 -10 -5.00647 -19 
-9 -5.5333 -19 -9 -6 -18.1365 -5.98419 -6 -19 
-6 -5.98765 -19 -6 -6 -18.9785 -4.31264 -6 -19 
-4 -5.65224 -19 -4 -6 -18.4113 -2.26597 -6 -19 
-3 -5.05461 -19 0.255129 -6 -19 1.94878 -6 -19 
1 -5.19881 -19 4.16679 -6 -19 6.79405 -6 -19 
6 -5.10726 -19 7.35286 -6 -19 8 -5.57211 -19 
8 -6 -18.2268 -14 -4.03083 -19 -13 -4.16846 -19 
-10.0035 -5 -19 -8.52332 -5 -19 -8 -4.62578 -19 
-6.60264 -5 -19 -7 -4.57961 -19 4.84379 -5 -19 
5.68377 -5 -19 5 -4.85081 -19 5 -5 -18.6108 
8.32298 -5 -19 9 -4.22821 -19 10 -4.10094 -19 
11 -4.79635 -19 11 -5 -18.386 12 -4.55526 -19 
-14.0248 -4 -19 -12.7463 -4 -19 -12 -3.44032 -19 
-10.8377 -4 -19 -11 -3.7789 -19 -11 -4 -18.4207 
12.4502 -4 -19 13 -3.22947 -19 15 -3.40166 -19 
16 -3.36907 -19 -18 -2.05058 -19 -14.7338 -3 -19 
13.4363 -3 -19 14.4261 -3 -19 14 -2.2117 -19 
14 -3 -18.133 16.2654 -3 -19 -18.014 -2 -19 
-17.7974 -2 -19 -18 -1.95574 -19 -17 -2 -18.7506 
[...]
POINT_DATA 34648
SCALARS RTData float
LOOKUP_TABLE default
140 140 140 140 140 140 140 140 140 
140 140 140 140 140 140 140 140 140 
140 140 140 140 140 140 140 140 140 
140 140 140 140 140 140 140 140 140 
140 140 140 140 140 140 140 140 140 
140 140 140 140 140 140 140 140 140 
140 140 140 140 140 140 140 140 140 
140 140 140 140 140 140 140 140 140 
140 140 140 140 140 140 140 140 140 
140 140 140 140 140 140 140 140 140 
140 140 140 140 140 140 140 140 140 
140 140 140 140 140 140 140 140 140 
140 140 140 140 140 140 140 140 140 
140 140 140 140 140 140 140 140 140 
140 140 140 140 140 140 140 140 140 
140 140 140 140 140 140 140 140 140 
140 140 140 140 140 140 140 140 140 
140 140 140 140 140 140 140 140 140 
140 140 140 140 140 140 140 140 140 
140 140 140 140 140 140 140 140 140 
140 140 140 140 140 140 140 140 140 
140 140 140 140 140 140 140 140 140 
140 140 140 140 140 140 140 140 140 
140 140 140 140 140 140 140 140 140 
140 140 140 140 140 140 140 140 140 
140 140 140 140 140 140 140 140 140 
140 140 140 140 140 140 140 140 140 
140 140 140 140 140 140 140 140 140 
140 140 140 140 140 140 140 140 140 
140 140 140 140 140 140 140 140 140 
140 140 140 140 140 140 140 140 140 
140 140 140 140 140 140 140 140 140 
140 140 140 140 140 140 140 140 140 
140 140 140 140 140 140 140 140 140 
140 140 140 140 140 140 140 140 140 
140 140 140 140 140 140 140 140 140 
140 140 140 140 140 140 140 140 140 
140 140 140 140 140 140 140 140 140 
140 140 140 140 140 140 140 140 140 
140 140 140 140 140 140 140 140 140 
140 140 140 140 140 140 140 140 140 
140 140 140 140 140 140 140 140 140 
140 140 140 140 140 140 140 140 140 
140 140 140 140 140 140 140 140 140 
140 140 140 140 140 140 140 140 140 
140 140 140 140 140 140 140 140 140 
140 140 140 140 140 140 140 140 140 
140 140 140 140 140 140 140 140 140 
140 140 140 140 140 140 140 140 140 
140 140 140 140 140 140 140 140 140 
140 140 140 140 140 140 140 140 140 
140 140 140 140 140 140 140 140 140 
140 140 140 140 140 140 140 140 140 
140 140 140 140 140 140 140 140 140 
140 140 140 140 140 140 140 140 140 
140 140 140 140 140 140 140 140 140 
140 140 140 140 140 140 140 140 140 
140 140 140 140 140 140 140 140 140 
140 140 140 140 140 140 140 140 140 
140 140 140 140 140 140 140 140 140 
140 140 140 140 140 140 140 140 140 
140 140 140 140 140 140 140 140 140 
140 140 140 140 140 140 140 140 140 
140 140 140 140 140 140 140 140 140 
140 140 140 140 140 140 140 140 140 
140 140 140 140 140 140 140 140 140 
140 140 140 140 140 140 140 140 140 
140 140 140 140 140 140 140 140 140 
140 140 140 140 140 140 140 140 140 
140 140 140 140 140 140 140 140 140 
140 140 140 140 140 140 140 140 140 
140 140 140 140 140 140 140 140 140 
140 140 140 140 140 140 140 140 140 
140 140 140 140 140 140 140 140 140 
140 140 140 140 140 140 140 140 140 
140 140 140 140 140 140 140 140 140 
140 140 140 140 140 140 140 140 140 
140 140 140 140 140 140 140 140 140 
140 140 140 140 140 140 140 140 140 
140 140 140 140 140 140 140 140 140 
140 140 140 140 140 140 140 140 140 
140 140 140 140 140 140 140 140 140 
140 140 140 140 140 140 140 140 140 
140 140 140 140 140 140 140 140 140 
140 140 140 140 140 140 140 140 140 
140 140 140 140 140 140 140 140 140 
140 140 140 140 140 140 140 140 140 
140 140 140 140 140 140 140 140 140 
140 140 140 140 140 140 140 140 140 
140 140 140 140 140 140 140 140 140 
140 140 140 140 140 140 140 140 140 
140 140 140 140 140 140 140 140 140 
140 140 140 140 140 140 140 140 140 
140 140 140 140 140 140 140 140 140 
140 140 140 140 140 140 140 140 140 
140 140 140 140 140 140 140 140 140 
140 140 140 140 140 140 140 140 140 
140 140 140 140 140 140 140 140 140 
140 140 140 140 140 140 140 140 140 
140 140 140 140 140 140 140 140 140 
140 140 140 140 140 140 140 140 140 
140 140 140 140 140 140 140 140 140 
140 140 140 140 140 140 140 140 140 
140 140 140 140 140 140 140 140 140 
140 140 140 140 140 140 140 140 140 
140 140 140 140 140 140 140 140 140 
140 140 140 140 140 140 140 140 140 
140 140 140 140 140 140 140 140 140 
140 140 140 140 140 140 140 140 140 
140 140 140 140 140 140 140 140 140 
140 140 140 140 140 140 140 140 140 
140 140 140 140 140 140 140 140 140 
140 140 140 140 140 140 140 140 140 
140 140 140 140 140 140 140 140 140 
140 140 140 140 140 140 140 140 140 
140 140 140 140 140 140 140 140 140 
140 140 140 140 140 140 140 140 140 
140 140 140 140 140 140 140 140 140 
140 140 140 140 140 140 140 140 140 
140 140 140 140 140 140 140 140 140 
140 140 140 140 140 140 140 140 140 
140 140 140 140 140 140 140 140 140 
140 140 140 140 140 140 140 140 140 
140 140 140 140 140 140 140 140 140 
140 140 140 140 140 140 140 140 140 
140 140 140 140 140 140 140 140 140 
140 140 140 140 140 140 140 140 140 
140 140 140 140 140 140 140 140 140 
140 140 140 140 140 140 140 140 140 
140 140 140 140 140 140 140 140 140 
140 140 140 140 140 140 140 140 140 
140 140 140 140 140 140 140 140 140 
140 140 140 140 140 140 140 140 140 
140 140 140 140 140 140 140 140 140 
140 140 140 140 140 140 140 140 140 
140 140 140 140 140 140 140 140 140 
140 140 140 140 140 140 140 140 140 
140 140 140 140 140 140 140 140 140 
140 140 140 140 140 140 140 140 140 
140 140 140 140 140 140 140 140 140 
140 140 140 140 140 140 140 140 140 
140 140 140 140 140 140 140 140 140 
140 140 140 140 140 140 140 140 140 
140 140 140 140 140 140 140 140 140 
140 140 140 140 140 140 140 140 140 
140 140 140 140 140 140 140 140 140 
140 140 140 140 140 140 140 140 140 
140 140 140 140 140 140 140 140 140 
140 140 140 140 140 140 140 140 140 
140 140 140 140 140 140 140 140 140 
140 140 140 140 140 140 140 140 140 
140 140 140 140 140 140 140 140 140 
140 140 140 140 140 140 140 140 140 
140 140 140 140 140 140 140 140 140 
140 140 140 140 140 140 140 140 140 
140 140 140 140 140 140 140 140 140 
140 140 140 140 140 140 140 140 140 
140 140 140 140 140 140 140 140 140 
140 140 140 140 140 140 140 140 140 
140 140 140 140 140 140 140 140 140 
140 140 140 140 140 140 140 140 140 
140 140 140 140 140 140 140 140 140 
140 140 140 140 140 140 140 140 140 
140 140 140 140 140 140 140 140 140 
140 140 140 140 140 140 140 140 140 
140 140 140 140 140 140 140 140 140 
140 140 140 140 140 140 140 140 140 
140 140 140 140 140 140 140 140 140 
140 140 140 140 140 140 140 140 140 
140 140 140 140 140 140 140 140 140 
140 140 140 140 140 140 140 140 140 
140 140 140 140 140 140 140 140 140 
140 140 140 140 140 140 140 140 140 
140 140 140 140 140 140 140 140 140 
140 140 140 140 140 140 140 140 140 
140 140 140 140 140 140 140 140 140 
140 140 140 140 140 140 140 140 140 
140 140 140 140 140 140 140 140 140 
140 140 140 140 140 140 140 140 140 
140 140 140 140 140 140 140 140 140 
140 140 140 140 140 140 140 140 140 
140 140 140 140 140 140 140 140 140 
140 140 140 140 140 140 140 140 140 
140 140 140 140 140 140 140 140 140 
140 140 140 140 140 140 140 140 140 
140 140 140 140 140 140 140 140 140 
140 140 140 140 140 140 140 140 140 
140 140 140 140 140 140 140 140 140 
140 140 140 140 140 140 140 140 140 
140 140 140 140 140 140 140 140 140 
140 140 140 140 140 140 140 140 140 
140 140 140 140 140 140 140 140 140 
140 140 140 140 140 140 140 140 140 
140 140 140 140 140 140 140 140 140 
140 140 140 140 140 140 140 140 140 
140 140 140 140 140 140 140 140 140 
140 140 140 140 140 140 140 140 140 
140 140 140 140 140 140 140 140 140 
140 140 140 140 140 140 140 140 140 
140 140 140 140 140 140 140 140 140 
140 140 140 140 140 140 140 140 140 
140 140 140 140 140 140 140 140 140 
140 140 140 140 140 140 140 140 140 
140 140 140 140 140 140 140 140 140 
140 140 140 140 140 140 140 140 140 
140 140 140 140 140 140 140 140 140 
140 140 140 140 140 140 140 140 140 
140 140 140 140 140 140 140 140 140 
140 140 140 140 140 140 140 140 140 
140 140 140 140 140 140 140 140 140 
140 140 140 140 140 140 140 140 140 
140 140 140 140 140 140 140 140 140 
140 140 140 140 140 140 140 140 140 
140 140 140 140 140 140 140 140 140 
140 140 140 140 140 140 140 140 140 
140 140 140 140 140 140 140 140 140 
140 140 140 140 140 140 140 140 140 
140 140 140 140 140 140 140 140 140 
140 140 140 140 140 140 140 140 140 
140 140 140 140 140 140 140 140 140 
140 140 140 140 140 140 140 140 140 
140 140 140 140 140 140 140 140 140 
140 140 140 140 140 140 140 140 140 
140 140 140 140 140 140 140 140 140 
140 140 140 140 140 140 140 140 140 
140 140 140 140 140 140 140 140 140 
140 140 140 140 140 140 140 140 140 
140 140 140 140 140 140 140 140 140 
140 140 140 140 140 140 140 140 140 
140 140 140 140 140 140 140 140 140 
140 140 140 140 140 140 140 140 140 
140 140 140 140 140 140 140 140 140 
140 140 140 140 140 140 140 140 140 
140 140 140 140 140 140 140 140 140 
140 140 140 140 140 140 140 140 140 
140 140 140 140 140 140 140 140 140 
140 140 140 140 140 140 140 140 140 
140 140 140 140 140 140 140 140 140 
140 140 140 140 140 140 140 140 140 
140 140 140 140 140 140 140 140 140 
140 140 140 140 140 140 140 140 140 
140 140 140 140 140 140 140 140 140 
140 140 140 140 140 140 140 140 140 
140 140 140 140 140 140 140 140 140 
140 140 140 140 140 140 140 140 140 
140 140 140 140 140 140 140 140 140 
140 140 140 140 140 140 140 140 140 
140 140 140 140 140 140 140 140 140 
140 140 140 140 140 140 140 140 140 
140 140 140 140 140 140 140 140 140 
140 140 140 140 140 140 140 140 140 
140 140 140 140 140 140 140 140 140 
140 140 140 140 140 140 140 140 140 
140 140 140 140 140 140 140 140 140 
140 140 140 140 140 140 140 140 140 
140 140 140 140 140 140 140 140 140 
140 140 140 140 140 140 140 140 140 
140 140 140 140 140 140 140 140 140 
140 140 140 140 140 140 140 140 140 
140 140 140 140 140 140 140 140 140 
140 140 140 140 140 140 140 140 140 
140 140 140 140 140 140 140 140 140 
140 140 140 140 140 140 140 140 140 
140 140 140 140 140 140 140 140 140 
140 140 140 140 140 140 140 140 140 
140 140 140 140 140 140 140 140 140 
140 140 140 140 140 140 140 140 140 
140 140 140 140 140 140 140 140 140 
140 140 140 140 140 140 140 140 140 
140 140 140 140 140 140 140 140 140 
140 140 140 140 140 140 140 140 140 
140 140 140 140 140 140 140 140 140 
140 140 140 140 140 140 140 140 140 
140 140 140 140 140 140 140 140 140 
140 140 140 140 140 140 140 140 140 
140 140 140 140 140 140 140 140 140 
140 140 140 140 140 140 140 140 140 
140 140 140 140 140 140 140 140 140 
140 140 140 140 140 140 140 140 140 
140 140 140 140 140 140 140 140 140 
140 140 140 140 140 140 140 140 140 
140 140 140 140 140 140 140 140 140 
140 140 140 140 140 140 140 140 140 
140 140 140 140 140 140 140 140 140 
140 140 140 140 140 140 140 140 140 
140 140 140 140 140 140 140 140 140 
140 140 140 140 140 140 140 140 140 
140 140 140 140 140 140 140 140 140 
140 140 140 140 140 140 140 140 140 
140 140 140 140 140 140 140 140 140 
140 140 140 140 140 140 140 140 140 
140 140 140 140 140 140 140 140 140 
140 140 140 140 140 140 140 140 140 
140 140 140 140 140 140 140 140 140 
140 140 140 140 140 140 140 140 140 
140 140 140 140 140 140 140 140 140 
140 140 140 140 140 140 140 140 140 
140 140 140 140 140 140 140 140 140 
140 140 140 140 140 140 140 140 140 
140 140 140 140 140 140 140 140 140 
140 140 140 140 140 140 140 140 140 
140 140 140 140 140 140 140 140 140 
140 140 140 140 140 140 140 140 140 
140 140 140 140 140 140 140 140 140 
140 140 140 140 140 140 140 140 140 
140 140 140 140 140 140 140 140 140 
140 140 140 140 140 140 140 140 140 
140 140 140 140 140 140 140 140 140 
140 140 140 140 140 140 140 140 140 
140 140 140 140 140 140 140 140 140 
140 140 140 140 140 140 140 140 140 
140 140 140 140 140 140 140 140 140 
140 140 140 140 140 140 140 140 140 
140 140 140 140 140 140 140 140 140 
140 140 140 140 140 140 140 140 140 
140 140 140 140 140 140 140 140 140 
140 140 140 140 140 140 140 140 140 
140 140 140 140 140 140 140 140 140 
140 140 140 140 140 140 140 140 140 
140 140 140 140 140 140 140 140 140 
140 140 140 140 140 140 140 140 140 
140 140 140 140 140 140 140 140 140 
140 140 140 140 140 140 140 140 140 
140 140 140 140 140 140 140 140 140 
140 140 140 140 140 140 140 140 140 
140 140 140 140 140 140 140 140 140 
140 140 140 140 140 140 140 140 140 
140 140 140 140 140 140 140 140 140 
140 140 140 140 140 140 140 140 140 
140 140 140 140 140 140 140 140 140 
140 140 140 140 140 140 140 140 140 
140 140 140 140 140 140 140 140 140 
140 140 140 140 140 140 140 140 140 
140 140 140 140 140 140 140 140 140 
140 140 140 140 140 140 140 140 140 
140 140 140 140 140 140 140 140 140 
140 140 140 140 140 140 140 140 140 
140 140 140 140 140 140 140 140 140 
140 140 140 140 140 140 140 140 140 
140 140 140 140 140 140 140 140 140 
140 140 140 140 140 140 140 140 140 
140 140 140 140 140 140 140 140 140 
140 140 140 140 140 140 140 140 140 
140 140 140 140 140 140 140 140 140 
140 140 140 140 140 140 140 140 140 
140 140 140 140 140 140 140 140 140 
140 140 140 140 140 140 140 140 140 
140 140 140 140 140 140 140 140 140 
140 140 140 140 140 140 140 140 140 
140 140 140 140 140 140 140 140 140 
140 140 140 140 140 140 140 140 140 
140 140 140 140 140 140 140 140 140 
140 140 140 140 140 140 140 140 140 
140 140 140 140 140 140 140 140 140 
140 140 140 140 140 140 140 140 140 
140 140 140 140 140 140 140 140 140 
140 140 140 140 140 140 140 140 140 
140 140 140 140 140 140 140 140 140 
140 140 140 140 140 140 140 140 140 
140 140 140 140 140 140 140 140 140 
140 140 140 140 140 140 140 140 140 
140 140 140 140 140 140 140 140 140 
140 140 140 140 140 140 140 140 140 
140 140 140 140 140 140 140 140 140 
140 140 140 140 140 140 140 140 140 
140 140 140 140 140 140 140 140 140 
140 140 140 140 140 140 140 140 140 
140 140 140 140 140 140 140 140 140 
140 140 140 140 140 140 140 140 140 
140 140 140 140 140 140 140 140 140 
140 140 140 140 140 140 140 140 140 
140 140 140 140 140 140 140 140 140 
140 140 140 140 140 140 140 140 140 
140 140 140 140 140 140 140 140 140 
140 140 140 140 140 140 140 140 140 
140 140 140 140 140 140 140 140 140 
140 140 140 140 140 140 140 140 140 
140 140 140 140 140 140 140 140 140 
140 140 140 140 140 140 140 140 140 
140 140 140 140 140 140 140 140 140 
140 140 140 140 140 140 140 140 140 
140 140 140 140 140 140 140 140 140 
140 140 140 140 140 140 140 140 140 
140 140 140 140 140 140 140 140 140 
140 140 140 140 140 140 140 140 140 
140 140 140 140 140 140 140 140 140 
140 140 140 140 140 140 140 140 140 
140 140 140 140 140 140 140 140 140 
140 140 140 140 140 140 140 140 140 
140 140 140 140 140 140 140 140 140 
140 140 140 140 140 140 140 140 140 
140 140 140 140 140 140 140 140 140 
140 140 140 140 140 140 140 140 140 
140 140 140 140 140 140 140 140 140 
140 140 140 140 140 140 140 140 140 
140 140 140 140 140 140 140 140 140 
140 140 140 140 140 140 140 140 140 
140 140 140 140 140 140 140 140 140 
140 140 140 140 140 140 140 140 140 
140 140 140 140 140 140 140 140 140 
140 140 140 140 140 140 140 140 140 
140 140 140 140 140 140 140 140 140 
140 140 140 140 140 140 140 140 140 
140 140 140 140 140 140 140 140 140 
140 140 140 140 140 140 140 140 140 
140 140 140 140 140 140 140 140 140 
140 140 140 140 140 140 140 140 140 
140 140 140 140 140 140 140 140 140 
140 140 140 140 140 140 140 140 140 
140 140 140 140 140 140 140 140 140 
140 140 140 140 140 140 140 140 140 
140 140 140 140 140 140 140 140 140 
140 140 140 140 140 140 140 140 140 
140 140 140 140 140 140 140 140 140 
140 140 140 140 140 140 140 140 140 
140 140 140 140 140 140 140 140 140 
140 140 140 140 140 140 140 140 140 
140 140 140 140 140 140 140 140 140 
140 140 140 140 140 140 140 140 140 
140 140 140 140 140 140 140 140 140 
140 140 140 140 140 140 140 140 140 
140 140 140 140 140 140 140 140 140 
140 140 140 140 140 140 140 140 140 
140 140 140 140 140 140 140 140 140 
140 140 140 140 140 140 140 140 140 
140 140 140 140 140 140 140 140 140 
140 140 140 140 140 140 140 140 140 
140 140 140 140 140 140 140 140 140 
140 140 140 140 140 140 140 140 140 
140 140 140 140 140 140 140 140 140 
140 140 140 140 140 140 140 140 140 
140 140 140 140 140 140 140 140 140 
140 140 140 140 140 140 140 140 140 
140 140 140 140 140 140 140 140 140 
140 140 140 140 140 140 140 140 140 
140 140 140 140 140 140 140 140 140 
140 140 140 140 140 140 140 140 140 
140 140 140 140 140 140 140 140 140 
140 140 140 140 140 140 140 140 140 
140 140 140 140 140 140 140 140 140 
140 140 140 140 140 140 140 140 140 
140 140 140 140 140 140 140 140 140 
140 140 140 140 140 140 140 140 140 
140 140 140 140 140 140 140 140 140 
140 140 140 140 140 140 140 140 140 
140 140 140 140 140 140 140 140 140 
140 140 140 140 140 140 140 140 140 
140 140 140 140 140 140 140 140 140 
140 140 140 140 140 140 140 140 140 
140 140 140 140 140 140 140 140 140 
140 140 140 140 140 140 140 140 140 
140 140 140 140 140 140 140 140 140 
140 140 140 140 140 140 140 140 140 
140 140 140 140 140 140 140 140 140 
140 140 140 140 140 140 140 140 140 
140 140 140 140 140 140 140 140 140 
140 140 140 140 140 140 140 140 140 
140 140 140 140 140 140 140 140 140 
140 140 140 140 140 140 140 140 140 
140 140 140 140 140 140 140 140 140 
140 140 140 140 140 140 140 140 140 
140 140 140 140 140 140 140 140 140 
140 140 140 140 140 140 140 140 140 
140 140 140 140 140 140 140 140 140 
140 140 140 140 140 140 140 140 140 
140 140 140 140 140 140 140 140 140 
140 140 140 140 140 140 140 140 140 
140 140 140 140 140 140 140 140 140 
140 140 140 140 140 140 140 140 140 
140 140 140 140 140 140 140 140 140 
140 140 140 140 140 140 140 140 140 
140 140 140 140 140 140 140 140 140 
140 140 140 140 140 140 140 140 140 
140 140 140 140 140 140 140 140 140 
140 140 140 140 140 140 140 140 140 
140 140 140 140 140 140 140 140 140 
140 140 140 140 140 140 140 140 140 
140 140 140 140 140 140 140 140 140 
140 140 140 140 140 140 140 140 140 
140 140 140 140 140 140 140 140 140 
140 140 140 140 140 140 140 140 140 
140 140 140 140 140 140 140 140 140 
140 140 140 140 140 140 140 140 140 
140 140 140 140 140 140 140 140 140 
140 140 140 140 140 140 140 140 140 
140 140 140 140 140 140 140 140 140 
140 140 140 140 140 140 140 140 140 
140 140 140 140 140 140 140 140 140 
140 140 140 140 140 140 140 140 140 
140 140 140 140 140 140 140 140 140 
140 140 140 140 140 140 140 140 140 
140 140 140 140 140 140 140 140 140 
140 140 140 140 140 140 140 140 140 
140 140 140 140 140 140 140 140 140 
140 140 140 140 140 140 140 140 140 
140 140 140 140 140 140 140 140 140 
140 140 140 140 140 140 140 140 140 
140 140 140 140 140 140 140 140 140 
140 140 140 140 140 140 140 140 140 
140 140 140 140 140 140 140 140 140 
140 140 140 140 140 140 140 140 140 
140 140 140 140 140 140 140 140 140 
140 140 140 140 140 140 140 140 140 
140 140 140 140 140 140 140 140 140 
140 140 140 140 140 140 140 140 140 
140 140 140 140 140 140 140 140 140 
140 140 140 140 140 140 140 140 140 
140 140 140 140 140 140 140 140 140 
140 140 140 140 140 140 140 140 140 
140 140 140 140 140 140 140 140 140 
140 140 140 140 140 140 140 140 140 
140 140 140 140 140 140 140 140 140 
140 140 140 140 140 140 140 140 140 
140 140 140 140 140 140 140 140 140 
140 140 140 140 140 140 140 140 140 
140 140 140 140 140 140 140 140 140 
140 140 140 140 140 140 140 140 140 
140 140 140 140 140 140 140 140 140 
140 140 140 140 140 140 140 140 140 
140 140 140 140 140 140 140 140 140 
140 140 140 140 140 140 140 140 140 
140 140 140 140 140 140 140 140 140 
140 140 140 140 140 140 140 140 140 
140 140 140 140 140 140 140 140 140 
140 140 140 140 140 140 140 140 140 
140 140 140 140 140 140 140 140 140 
140 140 140 140 140 140 140 140 140 
140 140 140 140 140 140 140 140 140 
140 140 140 140 140 140 140 140 140 
140 140 140 140 140 140 140 140 140 
140 140 140 140 140 140 140 140 140 
140 140 140 140 140 140 140 140 140 
140 140 140 140 140 140 140 140 140 
140 140 140 140 140 140 140 140 140 
140 140 140 140 140 140 140 140 140 
140 140 140 140 140 140 140 140 140 
140 140 140 140 140 140 140 140 140 
140 140 140 140 140 140 140 140 140 